LAMMPS data file via write_data, version 22 Aug 2018, timestep = 0

4 atoms
4 atom types
2 bonds
2 bond types
1 angles
1 angle types

-40.0 40.0 xlo xhi
-40.0 40.0 ylo yhi
-40.0 40.0 zlo zhi

Masses

1 86.5
2 67.0
3 15.0
4 29.0

Bond Coeffs # harmonic

1 200 2.689748837
2 200 3.04931147 

Angle Coeffs # harmonic

1 200 144.187

Atoms # full

1 0 1  -1.0       0 	0 1	
2 0 2   0.408675  0.00000000e+00  0.00000000e+00  0.00000000e+00
3 0 3   0.317505  0.00000000e+00  2.68974868e+00  3.57630574e-17
4 0 4   0.273820  1.77938428e+00 -2.46598438e+00  0.00000000e+00

Velocities

1  0.0  0.0  0.0
2  0.0  0.0  0.0
3  0.0  0.0  0.0
4  0.0  0.0  0.0

Bonds

1 1 2 3
2 2 2 4

Angles

1 1 3 2 4

PairIJ Coeffs # lj/cut

1 1 0.35284751 0.70430108 4.19550342 12.00000000
1 2 0.60375643 2.62038530 4.19550342 12.00000000
1 3 0.70641068 0.81212731 4.19550342 12.00000000
1 4 0.95759215 1.37446414 4.19550342 12.00000000
2 2 1.03308602 9.74926686 4.19550342 12.00000000
2 3 1.20873744 3.02155787 4.19550342 12.00000000
2 4 1.63853338 5.11375852 4.19550342 12.00000000
3 3 1.41425415 0.93646139 4.19550342 12.00000000
3 4 1.91712655 1.58489018 4.19550342 12.00000000
4 4 2.59880743 2.68230694 4.19550342 12.00000000

